LAMMPS data file via write_data, version 19 Sep 2019, timestep = 20000

14700 atoms
2 atom types
5000 bonds
1 bond types

-6.2831999999999999e-01 6.2831999999999999e-01 xlo xhi
-6.2831999999999999e-01 6.2831999999999999e-01 ylo yhi
0.0000000000000000e+00 6.2831999999999999e-01 zlo zhi

Masses

1 6e-05
2 6.6e-05

Atoms # hybrid

18 1 -1.0663240655599407e-02 -2.2661347659853965e-02 0.0000000000000000e+00 1 9.9021743256585034e+02 7.4408083721838836e-10 1.0000000000000000e+00 0 0 0
19 1 -4.6910841927587784e-03 -2.4612615744067364e-02 0.0000000000000000e+00 1 9.9994448347759317e+02 2.3626500280266778e-09 1.0000000000000000e+00 0 0 0
20 1 1.5771929185621170e-03 -2.5040150565169821e-02 0.0000000000000000e+00 1 1.0000439424221199e+03 2.1780035858217517e-09 1.0000000000000000e+00 0 0 0
21 1 7.7372570957180316e-03 -2.3804159952733314e-02 0.0000000000000000e+00 1 9.9980356776644101e+02 1.2232011885602160e-09 1.0000000000000000e+00 0 0 0
17 1 -1.5982721091947299e-02 -1.9318095727116819e-02 0.0000000000000000e+00 1 9.8947494349242720e+02 7.4886403580390377e-10 1.0000000000000000e+00 0 0 0
2517 2 -2.4844477078290730e-03 -1.8098685736678690e-02 3.1447770494451455e-03 0 9.9994846008674335e+02 5.6301243351127259e-10 1.0000000000000000e+00 0 0 0
2522 2 -6.8356787635532310e-04 -1.8927686870369820e-02 3.1427888402253538e-03 0 9.9996377987163316e+02 7.4831937395920691e-09 1.0000000000000000e+00 0 0 0
2521 2 2.2648459323508117e-03 -1.7854513430357859e-02 3.1418427822739047e-03 0 9.9990647053360669e+02 8.2944482541144333e-10 1.0000000000000000e+00 0 0 0
2526 2 7.8293298915106183e-03 -1.6259214010785124e-02 3.1421714122787650e-03 0 9.9992363540498752e+02 8.6463028340235986e-10 1.0000000000000000e+00 0 0 0
2547 2 5.4948052782965795e-03 -1.6390903328888002e-02 3.1409185401169741e-03 0 1.0000207539327668e+03 -8.0871256868744734e-10 1.0000000000000000e+00 0 0 0
22 1 1.3459050233633082e-02 -2.1208946581476706e-02 0.0000000000000000e+00 1 1.0001120185108184e+03 3.2128875552087879e-09 1.0000000000000000e+00 0 0 0
2551 2 1.1302962187258566e-02 -1.5497812062249310e-02 3.1393138990550807e-03 0 9.9993355624080846e+02 6.9612201609294937e-09 1.0000000000000000e+00 0 0 0
23 1 1.8241175445388304e-02 -1.7133975140854685e-02 0.0000000000000000e+00 1 9.9987588249132114e+02 2.5527017893920516e-09 1.0000000000000000e+00 0 0 0
15 1 -2.3296150681259849e-02 -9.2249233137781418e-03 0.0000000000000000e+00 1 9.9137854108285569e+02 9.3104069198379986e-10 1.0000000000000000e+00 0 0 0
16 1 -2.0284521895989130e-02 -1.4738933687902914e-02 0.0000000000000000e+00 1 9.8762317678521867e+02 9.2698088142364983e-10 1.0000000000000000e+00 0 0 0
2537 2 -8.9904223959621880e-03 -9.3116234083215534e-03 8.4695659202102550e-06 0 9.9994956152051736e+02 -2.4131803821250524e-09 1.0000000000000000e+00 0 0 0
2512 2 -7.0217037043631509e-03 -1.2643192775832519e-02 3.1844927073459779e-06 0 9.9997104744365924e+02 1.3446830504407418e-09 1.0000000000000000e+00 0 0 0
2518 2 -5.5170498693231200e-03 -1.4480500575725072e-02 3.1442792519610603e-03 0 1.0000551726995295e+03 -1.0835041765086514e-09 1.0000000000000000e+00 0 0 0
2539 2 -7.6252748770204298e-03 -1.1755259840623360e-02 3.1433182493073330e-03 0 9.9995460371136323e+02 -2.8511755066461872e-09 1.0000000000000000e+00 0 0 0
2544 2 -3.3381760682396934e-03 -9.6645254583623708e-03 3.1431604288190166e-03 0 9.9999772922807142e+02 -3.4589797993206393e-10 1.0000000000000000e+00 0 0 0
2543 2 -1.2115034883775897e-03 -1.3265164946877295e-02 3.1436593161381487e-03 0 9.9996501164387053e+02 4.9331288799360516e-10 1.0000000000000000e+00 0 0 0
2548 2 2.2275079281574251e-03 -1.0590684023906109e-02 3.1421385931650263e-03 0 9.9996632518715774e+02 -3.1091152976603522e-09 1.0000000000000000e+00 0 0 0
2552 2 7.2029223954784248e-03 -1.1976301851561255e-02 3.1417119045806978e-03 0 9.9994899443951363e+02 -3.2140487403654110e-09 1.0000000000000000e+00 0 0 0
2530 2 1.2447271435526512e-02 -1.3798415422667534e-02 3.1398788730088670e-03 0 9.9991820555663253e+02 3.4310876638101024e-10 1.0000000000000000e+00 0 0 0
24 1 2.1964274305870893e-02 -1.2073070036035013e-02 0.0000000000000000e+00 1 9.9996806389919254e+02 9.9277734431676579e-10 1.0000000000000000e+00 0 0 0
14 1 -2.4866310068033057e-02 -3.1414370085030099e-03 0.0000000000000000e+00 1 9.9997315234826374e+02 2.3792729484211222e-09 1.0000000000000000e+00 0 0 0
2534 2 -1.1883015982513281e-02 -7.2562602930192491e-03 1.2717126977273614e-06 0 1.0000092777985939e+03 1.4436527281946407e-09 1.0000000000000000e+00 0 0 0
2540 2 -1.1162090829168650e-02 -8.0001264308111122e-03 3.1427009988307560e-03 0 1.0000178592488155e+03 -2.8264178003226223e-09 1.0000000000000000e+00 0 0 0
2564 2 -1.2974640499194705e-02 -5.2293835177812846e-03 3.1425758748273068e-03 0 9.9996680727926787e+02 -7.7704233782461375e-10 1.0000000000000000e+00 0 0 0
2568 2 -7.7764304928033623e-03 -4.5305629808241234e-03 3.1430034171909412e-03 0 9.9997399192268551e+02 -1.8516798297374365e-11 1.0000000000000000e+00 0 0 0
2573 2 -4.6615655973115105e-03 -3.5609879172145910e-03 3.1436610870918475e-03 0 9.9996528166612211e+02 -2.5354698978828437e-09 1.0000000000000000e+00 0 0 0
2570 2 -2.4924766070144135e-03 -5.2766232666296492e-03 1.9710367199947637e-06 0 9.9999496720435616e+02 -1.9763119388068794e-09 1.0000000000000000e+00 0 0 0
2572 2 -1.3984097290511859e-03 -7.4912996355906763e-03 3.1439770281041866e-03 0 9.9998898007111802e+02 -2.3867271800574261e-09 1.0000000000000000e+00 0 0 0
2577 2 2.2759156379938430e-03 -3.8904257287360332e-03 3.1433331304089912e-03 0 9.9997337444455968e+02 -2.9542463366316686e-10 1.0000000000000000e+00 0 0 0
2576 2 5.6251697006735150e-03 -7.8376008388322555e-03 3.1425287308508598e-03 0 1.0000144264941174e+03 -2.5350066368677907e-09 1.0000000000000000e+00 0 0 0
2556 2 1.4777819052231331e-02 -8.6268135413980901e-03 3.1404332427478489e-03 0 9.9996326536143818e+02 -1.8607489911760586e-09 1.0000000000000000e+00 0 0 0
2581 2 9.3207469213178011e-03 -3.9374641569957071e-03 3.1415104700028285e-03 0 9.9999868237858266e+02 -2.5374189854401867e-09 1.0000000000000000e+00 0 0 0
2580 2 1.1033198797552362e-02 -7.1821837489073779e-03 3.1413505774330469e-03 0 9.9997188683328545e+02 -1.2118929852710925e-09 1.0000000000000000e+00 0 0 0
2585 2 1.4061623565163219e-02 -3.1442851136512140e-03 3.1435953292296465e-03 0 1.0000019580105567e+03 5.1534275646110509e-09 1.0000000000000000e+00 0 0 0
2554 2 1.5437204342214093e-02 -8.0961742858968594e-03 1.2369121403255217e-07 0 9.9995677684895202e+02 9.4653886417019095e-10 1.0000000000000000e+00 0 0 0
2584 2 1.7109729319488901e-02 -6.2220908729146247e-03 3.1398227725764963e-03 0 9.9996700901275437e+02 -2.3551664515654269e-09 1.0000000000000000e+00 0 0 0
25 1 2.4287766978815531e-02 -6.2356376905754497e-03 0.0000000000000000e+00 1 1.0000265835097663e+03 2.5933565946369199e-09 1.0000000000000000e+00 0 0 0
2565 2 -1.7996382376325067e-02 -1.7559885588360007e-03 3.1436293039340474e-03 0 1.0000639924783718e+03 6.1895254020142495e-10 1.0000000000000000e+00 0 0 0
2594 2 -1.9122348202265296e-02 -4.7211275298419696e-08 3.1429372347407682e-03 0 1.0000240890559794e+03 6.9769589760147769e-09 1.0000000000000000e+00 0 0 0
2595 2 -1.7996473232208543e-02 1.7559094967894949e-03 3.1436140875621471e-03 0 1.0000640160857394e+03 6.1895124444535677e-10 1.0000000000000000e+00 0 0 0
2569 2 -1.2032359337335612e-02 -2.1914099043716931e-03 3.1432725679526549e-03 0 1.0000251642895522e+03 9.2840744259089819e-10 1.0000000000000000e+00 0 0 0
2596 2 -1.3040824181144895e-02 3.0244370169417080e-08 2.5461526912526114e-06 0 1.0000492949955810e+03 -4.6700881010525449e-10 1.0000000000000000e+00 0 0 0
2599 2 -1.2032445351175760e-02 2.1914509239816097e-03 3.1430735866680871e-03 0 1.0000251537460503e+03 9.2840492236733913e-10 1.0000000000000000e+00 0 0 0
2567 2 -7.0745756263115491e-03 -1.9967903044392963e-03 3.3039011452917394e-06 0 9.9997035102739369e+02 -2.7364644106176350e-09 1.0000000000000000e+00 0 0 0
2598 2 -8.3109149190211985e-03 4.4921868195475366e-08 3.1431288315982384e-03 0 9.9994079657008831e+02 -3.3601004612213338e-09 1.0000000000000000e+00 0 0 0
2597 2 -7.0747366439015916e-03 1.9967426445485015e-03 3.1951454024281538e-06 0 9.9997038533930993e+02 -2.7364532128867884e-09 1.0000000000000000e+00 0 0 0
2602 2 -3.2211936583227327e-04 -5.7625566534928792e-08 3.1450465471951823e-03 0 1.0000173206922168e+03 -6.3876942726498790e-10 1.0000000000000000e+00 0 0 0
2604 2 3.2010849891758761e-03 1.0079140071450783e-08 2.5120072505641850e-06 0 1.0000228664366111e+03 1.3245573512923932e-09 1.0000000000000000e+00 0 0 0
2606 2 5.7454419040116412e-03 -2.6738988378298509e-07 3.1394594459848439e-03 0 9.9999681787084887e+02 -6.0094881089955876e-10 1.0000000000000000e+00 0 0 0
2610 2 9.1647503215504262e-03 7.3481542514045213e-08 3.1402044215319272e-03 0 9.9996642467631034e+02 -4.9029922650937395e-10 1.0000000000000000e+00 0 0 0
2608 2 9.4469162473094313e-03 3.9193445907742524e-08 1.2969493469762780e-06 0 1.0000109622505279e+03 -2.1852842259516719e-09 1.0000000000000000e+00 0 0 0
2589 2 1.7828227689831423e-02 -2.8143320535078033e-03 3.1415614521121070e-03 0 9.9998569834203420e+02 -7.5305428496217154e-10 1.0000000000000000e+00 0 0 0
2614 2 1.8019440258939388e-02 -1.3854360965047420e-07 3.1458581958213189e-03 0 9.9999901405167645e+02 -1.4451251250003442e-09 1.0000000000000000e+00 0 0 0
2619 2 1.7828405617722368e-02 2.8138909188121369e-03 3.1418462528174430e-03 0 9.9998581401555850e+02 -7.5304818118105619e-10 1.0000000000000000e+00 0 0 0
1 1 2.5055820944135981e-02 9.1979232835818602e-08 0.0000000000000000e+00 1 9.9995724420201304e+02 2.2744676876210022e-09 1.0000000000000000e+00 0 0 0
13 1 -2.4866313539547526e-02 3.1414097089467333e-03 0.0000000000000000e+00 1 9.9997315208772523e+02 2.3792728417901388e-09 1.0000000000000000e+00 0 0 0
2624 2 -1.2974730917356908e-02 5.2294761736728437e-03 3.1422571132103737e-03 0 9.9996682843405620e+02 -7.7704175862275671e-10 1.0000000000000000e+00 0 0 0
2629 2 -1.1161937522760739e-02 8.0004124232351155e-03 3.1425294502118173e-03 0 1.0000178522255821e+03 -2.8264161101963595e-09 1.0000000000000000e+00 0 0 0
2628 2 -7.7765771723365910e-03 4.5305711667607941e-03 3.1428920126769983e-03 0 9.9997401784899955e+02 -1.8517158841474228e-11 1.0000000000000000e+00 0 0 0
2603 2 -4.6615358675508207e-03 3.5612353535980326e-03 3.1436536068883253e-03 0 9.9996528067955001e+02 -2.5354617502240315e-09 1.0000000000000000e+00 0 0 0
2630 2 -2.4925549081363067e-03 5.2767187115306318e-03 1.9949563844315274e-06 0 9.9999492784260440e+02 -1.9763006899269453e-09 1.0000000000000000e+00 0 0 0
2632 2 -1.3984744144643125e-03 7.4911016164166972e-03 3.1439162685683426e-03 0 9.9998892784444251e+02 -2.3867333007665527e-09 1.0000000000000000e+00 0 0 0
2607 2 2.2760385988713472e-03 3.8900992554047969e-03 3.1432741721924579e-03 0 9.9997333633657308e+02 -2.9540625190247773e-10 1.0000000000000000e+00 0 0 0
2636 2 5.6251696437460055e-03 7.8373653447871144e-03 3.1426140429104119e-03 0 1.0000143303930383e+03 -2.5349441689237591e-09 1.0000000000000000e+00 0 0 0
2615 2 1.4062071236262215e-02 3.1440370151466449e-03 3.1439772981952966e-03 0 1.0000020902729515e+03 5.1534312420325079e-09 1.0000000000000000e+00 0 0 0
2611 2 9.3203399663239588e-03 3.9368742454462639e-03 3.1416294728199598e-03 0 9.9999854991085510e+02 -2.5373924540214585e-09 1.0000000000000000e+00 0 0 0
2640 2 1.1033190345571538e-02 7.1819775204988532e-03 3.1413894486528246e-03 0 9.9997183786365429e+02 -1.2119036363425268e-09 1.0000000000000000e+00 0 0 0
2645 2 1.4778290867377393e-02 8.6270970804904340e-03 3.1404826301313191e-03 0 9.9996284546299034e+02 -1.8606093085676942e-09 1.0000000000000000e+00 0 0 0
2644 2 1.7109686892252778e-02 6.2215405384100338e-03 3.1399580143181725e-03 0 9.9996691482096492e+02 -2.3551548059749997e-09 1.0000000000000000e+00 0 0 0
2643 2 1.5436796000463673e-02 8.0967635161491129e-03 6.2831965210975582e-01 0 9.9995621795164129e+02 9.4660060973832704e-10 1.0000000000000000e+00 0 0 -1
2 1 2.4287635062106266e-02 6.2358054008860722e-03 0.0000000000000000e+00 1 1.0000263817277993e+03 2.5933615859137870e-09 1.0000000000000000e+00 0 0 0
12 1 -2.3296169935189771e-02 9.2249000834188494e-03 0.0000000000000000e+00 1 9.9137854108285546e+02 9.3104069198380079e-10 1.0000000000000000e+00 0 0 0
11 1 -2.0284534946649849e-02 1.4738907058878313e-02 0.0000000000000000e+00 1 9.8762317678521867e+02 9.2698088142365128e-10 1.0000000000000000e+00 0 0 0
2654 2 -8.9904384533337385e-03 9.3116545671842917e-03 8.1149246882249624e-06 0 9.9994956024337398e+02 -2.4131751305202277e-09 1.0000000000000000e+00 0 0 0
2656 2 -7.6252314997115002e-03 1.1755304803704564e-02 3.1430770208723041e-03 0 9.9995459026490119e+02 -2.8511731469601236e-09 1.0000000000000000e+00 0 0 0
2633 2 -3.3380314125451660e-03 9.6645382560254442e-03 3.1431303834889113e-03 0 9.9999767816502197e+02 -3.4592028299377849e-10 1.0000000000000000e+00 0 0 0
2661 2 -5.5168861847806096e-03 1.4480604597208657e-02 3.1440452559223972e-03 0 1.0000552190266357e+03 -1.0835058612639254e-09 1.0000000000000000e+00 0 0 0
2660 2 -1.2115254400828508e-03 1.3265164592576551e-02 3.1436498235262299e-03 0 9.9996507480747778e+02 4.9327005478506997e-10 1.0000000000000000e+00 0 0 0
2637 2 2.2276623856706235e-03 1.0591059463188272e-02 3.1422237918832560e-03 0 9.9996633293084983e+02 -3.1090775257032779e-09 1.0000000000000000e+00 0 0 0
2641 2 7.2033520404065536e-03 1.1976428699433765e-02 3.1421308877623132e-03 0 9.9994901600640810e+02 -3.2140170261115160e-09 1.0000000000000000e+00 0 0 0
2673 2 1.2448445324257507e-02 1.3798460774033483e-02 3.1423267694380896e-03 0 9.9991816390631107e+02 3.4273340875624829e-10 1.0000000000000000e+00 0 0 0
3 1 2.1964012143124448e-02 1.2073185913247851e-02 0.0000000000000000e+00 1 9.9996862573945873e+02 9.9277860022504558e-10 1.0000000000000000e+00 0 0 0
10 1 -1.5982809502664529e-02 1.9318139874233045e-02 0.0000000000000000e+00 1 9.8947494349242720e+02 7.4886403580390356e-10 1.0000000000000000e+00 0 0 0
2682 2 -2.4842440898986515e-03 1.8098754339457079e-02 3.1444658927765653e-03 0 9.9994835217906825e+02 5.6300030622678302e-10 1.0000000000000000e+00 0 0 0
2665 2 -6.8313735249558567e-04 1.8927763848276498e-02 3.1425085368865205e-03 0 9.9996384405170124e+02 7.4832095585239189e-09 1.0000000000000000e+00 0 0 0
2686 2 2.2653029187741508e-03 1.7854470887708997e-02 3.1416307861121349e-03 0 9.9990633956973113e+02 8.2945828651763908e-10 1.0000000000000000e+00 0 0 0
2664 2 5.4955218015070905e-03 1.6390771613890527e-02 3.1411202662093790e-03 0 1.0000207877791820e+03 -8.0870031557534120e-10 1.0000000000000000e+00 0 0 0
2669 2 7.8301749460027627e-03 1.6259120159972974e-02 3.1436621012626330e-03 0 9.9992312343431229e+02 8.6462371373870731e-10 1.0000000000000000e+00 0 0 0
2668 2 1.1305925384202012e-02 1.5496402222588215e-02 3.1399915047121037e-03 0 9.9993316746874234e+02 6.9610252477833512e-09 1.0000000000000000e+00 0 0 0
5 1 1.3459258238281292e-02 2.1209447337864323e-02 0.0000000000000000e+00 1 1.0001123755598394e+03 3.2135129038411493e-09 1.0000000000000000e+00 0 0 0
4 1 1.8241294224869548e-02 1.7134371243447678e-02 0.0000000000000000e+00 1 9.9987529508784564e+02 2.5527841746634715e-09 1.0000000000000000e+00 0 0 0
9 1 -1.0663305757201202e-02 2.2661354684893196e-02 0.0000000000000000e+00 1 9.9021740680682535e+02 7.4408092493065317e-10 1.0000000000000000e+00 0 0 0
8 1 -4.6911323348796351e-03 2.4612570781050010e-02 0.0000000000000000e+00 1 9.9994451120803581e+02 2.3626507217627788e-09 1.0000000000000000e+00 0 0 0
7 1 1.5771383077574799e-03 2.5040199937682573e-02 0.0000000000000000e+00 1 1.0000438863615460e+03 2.1779990256159425e-09 1.0000000000000000e+00 0 0 0
6 1 7.7371563964605114e-03 2.3803979873714711e-02 0.0000000000000000e+00 1 9.9980315180848243e+02 1.2231988394216058e-09 1.0000000000000000e+00 0 0 0
43 1 -1.0669929359228907e-02 -2.2674163349945712e-02 6.2832000000000001e-03 1 9.9021268723206674e+02 7.4380146960684363e-10 1.0000000000000000e+00 0 0 0
44 1 -4.6916479087382394e-03 -2.4606587991074659e-02 6.2832000000000001e-03 1 9.9994863804475654e+02 2.3625764339690884e-09 1.0000000000000000e+00 0 0 0
45 1 1.5763191783182042e-03 -2.5038659219078649e-02 6.2832000000000001e-03 1 1.0000418868150537e+03 2.1770316913063748e-09 1.0000000000000000e+00 0 0 0
46 1 7.7367142590576508e-03 -2.3804313807498530e-02 6.2832000000000001e-03 1 9.9980495590966837e+02 1.2234328304138258e-09 1.0000000000000000e+00 0 0 0
42 1 -1.5979303113997992e-02 -1.9314883723458423e-02 6.2832000000000001e-03 1 9.8947508294259956e+02 7.4857909745211583e-10 1.0000000000000000e+00 0 0 0
2709 2 -3.4002915075728086e-03 -1.7143155977889887e-02 6.2863131701246305e-03 0 9.9998778346515667e+02 5.6113011239706889e-10 1.0000000000000000e+00 0 0 0
2710 2 -2.4805768042378980e-03 -1.8096188575965341e-02 9.4276603812388209e-03 0 9.9994923701094854e+02 5.6461958952422618e-10 1.0000000000000000e+00 0 0 0
2712 2 -8.8429731802841711e-04 -1.8912373900383399e-02 6.2854754431817773e-03 0 9.9994465144946560e+02 -3.0758934233792931e-09 1.0000000000000000e+00 0 0 0
2715 2 -6.7999853584792367e-04 -1.8925410093527915e-02 9.4280822508420528e-03 0 9.9997225846658694e+02 7.4819318033510495e-09 1.0000000000000000e+00 0 0 0
2713 2 2.6406145295584352e-03 -1.7622523781205435e-02 6.2828327013421965e-03 0 9.9991001729761922e+02 1.0692448377911624e-09 1.0000000000000000e+00 0 0 0
2714 2 2.2655087970424276e-03 -1.7855310214210662e-02 9.4244521481908778e-03 0 9.9991084864041579e+02 8.3091127202645607e-10 1.0000000000000000e+00 0 0 0
2742 2 8.1466543299559650e-03 -1.6392479594693251e-02 6.2826454598659438e-03 0 9.9995867712229551e+02 -1.2461055106776307e-09 1.0000000000000000e+00 0 0 0
2719 2 7.8292068787315650e-03 -1.6260613660980038e-02 9.4253668064429585e-03 0 9.9992389151766019e+02 8.6705011745346776e-10 1.0000000000000000e+00 0 0 0
2740 2 5.4950311410877084e-03 -1.6392059276555529e-02 9.4243028588669661e-03 0 1.0000151018070171e+03 -8.1247250840752843e-10 1.0000000000000000e+00 0 0 0
47 1 1.3458595479511030e-02 -2.1209292308391296e-02 6.2832000000000001e-03 1 1.0001128800208406e+03 3.2131086848179133e-09 1.0000000000000000e+00 0 0 0
2744 2 1.1300514875671838e-02 -1.5500344182773348e-02 9.4220546982666260e-03 0 9.9993481269991139e+02 6.9625023763400448e-09 1.0000000000000000e+00 0 0 0
48 1 1.8240468528461572e-02 -1.7134023592525905e-02 6.2832000000000001e-03 1 9.9987527912818928e+02 2.5526861194397236e-09 1.0000000000000000e+00 0 0 0
40 1 -2.3306500984264258e-02 -9.2286148456070215e-03 6.2832000000000001e-03 1 9.9137591316700377e+02 9.3112959791341917e-10 1.0000000000000000e+00 0 0 0
41 1 -2.0279464717286519e-02 -1.4734182295896819e-02 6.2832000000000001e-03 1 9.8762334050735717e+02 9.2662467679595520e-10 1.0000000000000000e+00 0 0 0
2730 2 -8.9937806860951909e-03 -9.3147245686296780e-03 6.2821296490660899e-03 0 9.9995335531126966e+02 -2.4107633830352075e-09 1.0000000000000000e+00 0 0 0
2705 2 -7.0227394423112146e-03 -1.2640974175382376e-02 6.2859236765867412e-03 0 9.9996780314126363e+02 1.3489090800400573e-09 1.0000000000000000e+00 0 0 0
2711 2 -5.5138270503797054e-03 -1.4479110193952295e-02 9.4280194642484254e-03 0 1.0000466891496284e+03 -1.0793683883298959e-09 1.0000000000000000e+00 0 0 0
2732 2 -7.6214906771436136e-03 -1.1754885587414006e-02 9.4271734440487375e-03 0 9.9995397163975497e+02 -2.8467298415834204e-09 1.0000000000000000e+00 0 0 0
2734 2 -5.8902507078825942e-03 -1.4099258635374942e-02 6.2858542192748270e-03 0 9.9996131813225577e+02 3.2155095292887438e-09 1.0000000000000000e+00 0 0 0
2737 2 -3.3366559500343481e-03 -9.6631902046662946e-03 9.4264536280298378e-03 0 1.0000003586231232e+03 -3.4938881426291922e-10 1.0000000000000000e+00 0 0 0
2735 2 -3.4882277498700056e-04 -9.8724129355255014e-03 6.2849932810490443e-03 0 1.0000172243305054e+03 -2.5863329304265912e-09 1.0000000000000000e+00 0 0 0
2736 2 -1.2092013687341403e-03 -1.3261790923335678e-02 9.4260802376085959e-03 0 9.9997302964480764e+02 4.8964782997875470e-10 1.0000000000000000e+00 0 0 0
2738 2 1.7938044881076608e-03 -1.3687059360739778e-02 6.2845525250770874e-03 0 9.9998663371734733e+02 -1.6063628658883211e-09 1.0000000000000000e+00 0 0 0
2741 2 2.2288561782241993e-03 -1.0592410937561933e-02 9.4264922208061631e-03 0 9.9996942314112152e+02 -3.1136301543488952e-09 1.0000000000000000e+00 0 0 0
2739 2 5.1854038446359869e-03 -1.2421731268068045e-02 6.2847475614340063e-03 0 9.9995441848778864e+02 -3.0653356941644757e-09 1.0000000000000000e+00 0 0 0
2745 2 7.2027863601491094e-03 -1.1976467330179494e-02 9.4249229338888973e-03 0 9.9995173973277952e+02 -3.2185460986687126e-09 1.0000000000000000e+00 0 0 0
2717 2 1.1894805255848401e-02 -1.4869404723379885e-02 6.2808420486791094e-03 0 9.9990400582733002e+02 -3.7004522148031109e-10 1.0000000000000000e+00 0 0 0
2723 2 1.2446130671825335e-02 -1.3799954411503097e-02 9.4220092650688682e-03 0 9.9991978428165680e+02 3.4603007103387055e-10 1.0000000000000000e+00 0 0 0
2743 2 1.0931605503079138e-02 -9.7260742962972293e-03 6.2824502833973127e-03 0 9.9999108595607800e+02 -1.6713171556137736e-09 1.0000000000000000e+00 0 0 0
2746 2 1.2626117784624320e-02 -1.2550186103996462e-02 6.2807188498153381e-03 0 1.0000128961318492e+03 -4.8727619866287257e-09 1.0000000000000000e+00 0 0 0
49 1 2.1963709107965832e-02 -1.2073221673684310e-02 6.2832000000000001e-03 1 9.9996880310513905e+02 9.9237715555159017e-10 1.0000000000000000e+00 0 0 0
39 1 -2.4862233328606285e-02 -3.1414226914561272e-03 6.2832000000000001e-03 1 9.9997611680051534e+02 2.3787199390016364e-09 1.0000000000000000e+00 0 0 0
2727 2 -1.1884261057701224e-02 -7.2568618975012190e-03 6.2846600625450213e-03 0 1.0000091850411806e+03 1.4481273225066194e-09 1.0000000000000000e+00 0 0 0
2733 2 -1.1158952405008296e-02 -7.9982869756115189e-03 9.4265811963064727e-03 0 1.0000158701996910e+03 -2.8218223139520351e-09 1.0000000000000000e+00 0 0 0
2757 2 -1.2974044456461178e-02 -5.2275790391917007e-03 9.4267746210068299e-03 0 9.9996594334604481e+02 -7.7301879606721684e-10 1.0000000000000000e+00 0 0 0
2759 2 -1.2824228675267346e-02 -5.7657864204821285e-03 6.2845454291815053e-03 0 1.0000102707962017e+03 3.1105114370182770e-09 1.0000000000000000e+00 0 0 0
2731 2 -6.4122399357688558e-03 -7.7406091113181074e-03 6.2868306400020247e-03 0 1.0000123025355462e+03 2.9373605272452457e-09 1.0000000000000000e+00 0 0 0
2761 2 -7.7747444568615548e-03 -4.5303376995626029e-03 9.4261746661144161e-03 0 9.9997476562264171e+02 -2.1889096105020544e-11 1.0000000000000000e+00 0 0 0
2766 2 -4.6594209940577997e-03 -3.5598873883924630e-03 9.4270879030907244e-03 0 9.9996658656363479e+02 -2.5394590620840425e-09 1.0000000000000000e+00 0 0 0
2763 2 -2.4944833650481415e-03 -5.2766114365678744e-03 6.2837553571735479e-03 0 9.9999757390757316e+02 -1.9902463120596728e-09 1.0000000000000000e+00 0 0 0
2765 2 -1.3974845058640419e-03 -7.4891849506521580e-03 9.4271228449929641e-03 0 9.9998909296215015e+02 -2.3910439035219721e-09 1.0000000000000000e+00 0 0 0
2767 2 2.9867043566933643e-03 -6.8852543335408125e-03 6.2840499485808544e-03 0 1.0000513518006272e+03 -2.4821582363113225e-09 1.0000000000000000e+00 0 0 0
2770 2 2.2808328228640477e-03 -3.8884699317235805e-03 9.4254486527379465e-03 0 9.9997325630843250e+02 -2.9744932476324678e-10 1.0000000000000000e+00 0 0 0
2768 2 4.7496958252435688e-03 -3.6472778859855883e-03 6.2829979188829491e-03 0 1.0000003796249932e+03 -1.5876096686629010e-09 1.0000000000000000e+00 0 0 0
2769 2 5.6252381961623427e-03 -7.8358876695379456e-03 9.4257218359735436e-03 0 1.0000123301921396e+03 -2.5393701694601966e-09 1.0000000000000000e+00 0 0 0
2771 2 7.2151347601118448e-03 -7.5667915231334409e-03 6.2841482977963039e-03 0 9.9997514401799003e+02 -2.9037532026168696e-09 1.0000000000000000e+00 0 0 0
2749 2 1.4775323236655211e-02 -8.6270594362085513e-03 9.4241709373317165e-03 0 9.9996206956390608e+02 -1.8580175966038402e-09 1.0000000000000000e+00 0 0 0
2774 2 9.3214625182222906e-03 -3.9369773931355895e-03 9.4252814719628600e-03 0 9.9999780848571277e+02 -2.5416949253290786e-09 1.0000000000000000e+00 0 0 0
2772 2 9.5142988919819805e-03 -4.2572239144684533e-03 6.2839159385813595e-03 0 1.0000204276531383e+03 -1.4424217077229009e-09 1.0000000000000000e+00 0 0 0
2773 2 1.1032886558840974e-02 -7.1823736377422025e-03 9.4251926930473372e-03 0 9.9997205567822289e+02 -1.2166338766155978e-09 1.0000000000000000e+00 0 0 0
2778 2 1.4058379440968405e-02 -3.1444289429656334e-03 9.4251958775334096e-03 0 1.0000036712672041e+03 5.1474196075688849e-09 1.0000000000000000e+00 0 0 0
2747 2 1.5434829721161794e-02 -8.0982523132387928e-03 6.2822535058380084e-03 0 9.9995500984474290e+02 9.5104900913181260e-10 1.0000000000000000e+00 0 0 0
2775 2 1.6703676186062423e-02 -6.8575212524898087e-03 6.2825776280372118e-03 0 9.9998163583947667e+02 3.0700225945962504e-09 1.0000000000000000e+00 0 0 0
2777 2 1.7107329520817262e-02 -6.2239123876039124e-03 9.4253439445220917e-03 0 9.9996716808735414e+02 -2.3514521894978309e-09 1.0000000000000000e+00 0 0 0
50 1 2.4286743309054972e-02 -6.2356059362296328e-03 6.2832000000000001e-03 1 1.0000262741219537e+03 2.5939013575217518e-09 1.0000000000000000e+00 0 0 0
2756 2 -1.6776934444732737e-02 -2.2717431141442432e-03 6.2852491061816109e-03 0 1.0000231106614758e+03 7.0081980444801041e-10 1.0000000000000000e+00 0 0 0
2758 2 -1.7994873171283461e-02 -1.7561921710758310e-03 9.4273039596213613e-03 0 1.0000635567483664e+03 6.2073939267478254e-10 1.0000000000000000e+00 0 0 0
2785 2 -1.9155334006279726e-02 -1.5736998431525958e-08 6.2857587382551452e-03 0 1.0000394214093470e+03 -2.5491175026072464e-09 1.0000000000000000e+00 0 0 0
2787 2 -1.9120553536841153e-02 2.8026772308283858e-08 9.4272205440794378e-03 0 1.0000275374974614e+03 6.9756802531070241e-09 1.0000000000000000e+00 0 0 0
2786 2 -1.6776984949386144e-02 2.2717715771305652e-03 6.2852739307912679e-03 0 1.0000231264729914e+03 7.0081943003407654e-10 1.0000000000000000e+00 0 0 0
2788 2 -1.7994847807457054e-02 1.7562715988390044e-03 9.4272877326269065e-03 0 1.0000635620213366e+03 6.2073574133147191e-10 1.0000000000000000e+00 0 0 0
2762 2 -1.2028073310240193e-02 -2.1908554117903560e-03 9.4263544923092590e-03 0 1.0000245245345114e+03 9.2495138553342030e-10 1.0000000000000000e+00 0 0 0
2789 2 -1.3039661580478371e-02 3.5493591125875507e-08 6.2857428423616487e-03 0 1.0000527620943490e+03 -4.7729252155444729e-10 1.0000000000000000e+00 0 0 0
2792 2 -1.2028347662116533e-02 2.1908734624578059e-03 9.4262064368010271e-03 0 1.0000245444105194e+03 9.2494625686948749e-10 1.0000000000000000e+00 0 0 0
2760 2 -7.0724811150972974e-03 -1.9981689586559483e-03 6.2847797098953499e-03 0 9.9997285921382320e+02 -2.7508332447576654e-09 1.0000000000000000e+00 0 0 0
2791 2 -8.3090799426002327e-03 7.5050770669164447e-08 9.4264938279802393e-03 0 9.9994208092202416e+02 -3.3645010811808751e-09 1.0000000000000000e+00 0 0 0
2793 2 -3.3741981931544808e-03 3.7099574260420450e-08 6.2836187363049271e-03 0 9.9999483141818439e+02 -3.1214386983600052e-09 1.0000000000000000e+00 0 0 0
2790 2 -7.0724280618890472e-03 1.9983068488846471e-03 6.2848016456586928e-03 0 9.9997284323082022e+02 -2.7508315492362329e-09 1.0000000000000000e+00 0 0 0
2764 2 -4.0061088071065515e-04 -2.8853656012584497e-03 6.2849099944443116e-03 0 1.0000133379136928e+03 -1.7136415903630263e-09 1.0000000000000000e+00 0 0 0
2795 2 -3.1077908956883690e-04 -5.2545744606556585e-08 9.4254960887236571e-03 0 1.0000168809832791e+03 -6.4004344951130393e-10 1.0000000000000000e+00 0 0 0
2794 2 -4.0051896735618457e-04 2.8854291275152324e-03 6.2849412924782444e-03 0 1.0000133375403410e+03 -1.7136412349654697e-09 1.0000000000000000e+00 0 0 0
2797 2 3.2026835597485357e-03 4.5803069685318233e-08 6.2805684033413875e-03 0 1.0000218012815799e+03 1.3135330085228263e-09 1.0000000000000000e+00 0 0 0
2799 2 5.7418129340656163e-03 -2.4063659713278465e-07 9.4280208231478525e-03 0 9.9999767694867296e+02 -6.0246884782958699e-10 1.0000000000000000e+00 0 0 0
2803 2 9.1613471093291120e-03 -1.6541750333743374e-07 9.4271499644836346e-03 0 9.9996545043079550e+02 -4.9609487241813242e-10 1.0000000000000000e+00 0 0 0
2801 2 9.4430280690653377e-03 -1.4211466379288067e-07 6.2845334331931195e-03 0 1.0000118960651457e+03 -2.1972549453524733e-09 1.0000000000000000e+00 0 0 0
2805 2 1.4738414604766655e-02 -5.9276749393690238e-08 6.2839456961443566e-03 0 9.9998988647160002e+02 5.0966622082869815e-09 1.0000000000000000e+00 0 0 0
2776 2 1.7888984252170535e-02 -2.7647026445323446e-03 6.2818886456036116e-03 0 9.9999474055014139e+02 -2.6415998937428576e-09 1.0000000000000000e+00 0 0 0
2782 2 1.7825797763231305e-02 -2.8154357667333299e-03 9.4256716727078790e-03 0 9.9998619054946903e+02 -7.5372608206587836e-10 1.0000000000000000e+00 0 0 0
2807 2 1.8016882933141621e-02 -4.7238301713520555e-07 9.4234411075421222e-03 0 9.9999982976174510e+02 -1.4466711956613083e-09 1.0000000000000000e+00 0 0 0
2812 2 1.7826005131767832e-02 2.8143819135462672e-03 9.4256115927372295e-03 0 9.9998614917075520e+02 -7.5369622182300051e-10 1.0000000000000000e+00 0 0 0
2806 2 1.7889358553028974e-02 2.7637651713189864e-03 6.2820440252283902e-03 0 9.9999473602371802e+02 -2.6416207402038312e-09 1.0000000000000000e+00 0 0 0
26 1 2.5055812720154454e-02 -5.1977240280314831e-10 6.2832000000000001e-03 1 9.9996056299342365e+02 2.2747764234983226e-09 1.0000000000000000e+00 0 0 0
38 1 -2.4862235800736859e-02 3.1414246497487720e-03 6.2832000000000001e-03 1 9.9997612778154121e+02 2.3787197693781623e-09 1.0000000000000000e+00 0 0 0
2817 2 -1.2974082628786420e-02 5.2275721907256711e-03 9.4264863287277078e-03 0 9.9996594071536902e+02 -7.7302413505975346e-10 1.0000000000000000e+00 0 0 0
2819 2 -1.2824286633212792e-02 5.7658137989976301e-03 6.2840877951467261e-03 0 1.0000102835609654e+03 3.1105084543586278e-09 1.0000000000000000e+00 0 0 0
2816 2 -1.1884307679838540e-02 7.2569136739377357e-03 6.2846123165993381e-03 0 1.0000091791793151e+03 1.4481194860595721e-09 1.0000000000000000e+00 0 0 0
2822 2 -1.1159341139706817e-02 7.9979944011211238e-03 9.4264152014433746e-03 0 1.0000158921344699e+03 -2.8218294126743750e-09 1.0000000000000000e+00 0 0 0